ITEM: TIMESTEP
0
ITEM: NUMBER OF ATOMS
200
ITEM: BOX BOUNDS pp pp pp
0.0000000000000000e+00 1.3855607200747134e+01
0.0000000000000000e+00 1.3855607200747134e+01
0.0000000000000000e+00 1.3855607200747134e+01
ITEM: ATOMS id type x y z 
37 1 1.49959 2.32237 2.70609 
182 1 2.60607 2.21873 0.976797 
188 1 1.89257 4.03414 1.23208 
23 1 6.26936 1.39195 0.870613 
41 1 5.33377 1.99045 0.893641 
51 1 4.50653 2.50952 1.87921 
131 1 4.42915 1.70732 0.360476 
27 1 3.02316 3.93555 4.9499 
76 1 1.93567 1.24011 6.88276 
136 1 0.045742 0.500698 5.36813 
157 1 2.78156 4.10754 3.57569 
48 1 6.86491 0.455043 6.63713 
53 1 3.79538 1.22043 4.8828 
149 1 4.94134 3.19686 6.58919 
4 1 2.32962 4.20962 7.16187 
33 1 0.0900509 0.202471 9.72398 
127 1 4.72468 1.50129 9.74986 
142 1 6.41075 3.46412 9.1408 
169 1 5.29738 3.56311 9.77336 
197 1 4.35291 1.14882 9.27932 
18 1 3.37087 0.598592 11.5764 
22 1 0.955016 3.90525 13.8036 
47 1 1.33105 2.49536 13.8212 
171 1 1.01594 1.66194 12.2584 
21 1 3.8438 2.52541 11.1049 
56 1 4.81266 1.77471 12.2697 
91 1 4.84371 1.68466 11.5796 
121 1 5.39999 0.566698 12.3509 
143 1 6.40995 0.496228 11.6696 
16 1 1.65483 6.66287 1.36649 
70 1 0.293385 6.19723 0.0108321 
80 1 0.95674 6.14954 1.18961 
128 1 1.56426 4.68862 3.28866 
139 1 3.3684 8.99226 2.99929 
172 1 3.41329 5.00986 1.49242 
36 1 5.14979 7.36659 1.67593 
69 1 4.11412 4.9827 2.15448 
87 1 4.21589 4.74783 0.391976 
114 1 6.20336 6.00084 1.19022 
116 1 3.74483 5.85641 2.66105 
126 1 4.21695 9.1245 2.97016 
164 1 3.82748 7.20532 1.55075 
42 1 1.90407 4.85922 4.64809 
63 1 1.80386 5.30747 5.80771 
133 1 0.810094 4.86723 5.14665 
176 1 2.65969 7.69448 6.92107 
43 1 3.56877 7.47117 6.31671 
50 1 5.13314 6.20468 4.71114 
93 1 6.64407 6.02577 3.66044 
175 1 4.14989 9.03284 5.35144 
181 1 6.6091 8.76462 6.30335 
96 1 1.01666 8.14023 8.53837 
104 1 0.71945 7.83719 9.39822 
113 1 3.39951 5.11242 9.35916 
138 1 0.595385 6.66679 8.84527 
144 1 2.11054 4.74521 9.60327 
151 1 1.86403 5.75773 9.88195 
9 1 5.03028 8.79145 7.84187 
32 1 4.51147 4.96709 7.20683 
44 1 6.31142 7.59027 8.92654 
74 1 4.47133 7.21642 7.53885 
140 1 6.72986 6.34783 8.10823 
156 1 3.84308 5.82296 9.40119 
166 1 4.52028 5.7556 10.1129 
13 1 1.62407 8.21907 10.8583 
28 1 3.18144 5.03647 10.5197 
38 1 1.21489 8.72111 13.3618 
39 1 2.91321 6.16952 10.7731 
174 1 1.72306 4.83801 13.0339 
199 1 1.25354 5.28909 10.7854 
31 1 6.65954 7.32924 13.7332 
71 1 5.16792 5.7601 12.6077 
79 1 4.05697 6.38515 13.5479 
90 1 6.31249 9.10409 13.7879 
132 1 5.39681 6.78615 12.4764 
101 1 2.327 10.7099 0.936306 
115 1 1.82564 13.319 1.62788 
184 1 1.4764 10.3881 0.342786 
198 1 0.636496 10.0449 0.881294 
98 1 3.99798 12.1374 2.15431 
137 1 4.40171 12.9653 3.00088 
150 1 3.97673 12.7584 2.34911 
196 1 5.63355 10.4177 2.80849 
7 1 1.23374 13.8149 5.18538 
11 1 4.24536 10.9936 5.22771 
78 1 3.55922 11.5974 3.84079 
95 1 4.01752 11.8698 4.21915 
130 1 3.56122 12.7206 6.55037 
141 1 5.68107 13.6832 6.37884 
193 1 4.04638 12.1551 6.67751 
14 1 1.87596 11.5729 8.19283 
155 1 1.97959 11.5102 8.14599 
194 1 0.751134 10.1488 10.3266 
12 1 4.73798 12.3595 7.95959 
30 1 6.60385 13.6309 7.22349 
34 1 4.33608 9.61226 7.83254 
40 1 3.6617 12.8267 8.85784 
54 1 4.79408 12.0093 9.10873 
62 1 5.93648 9.72402 8.2842 
86 1 3.71819 12.8232 8.98024 
89 1 4.34768 10.4552 7.0239 
117 1 3.81577 13.7359 7.4653 
180 1 4.20971 11.4212 10.3511 
110 1 3.11482 9.56644 12.6281 
147 1 0.590853 13.7589 13.1447 
168 1 2.98328 10.4731 13.1474 
26 1 4.508 11.0138 13.1963 
102 1 4.76137 12.9574 12.0121 
124 1 3.86611 11.5048 13.7315 
190 1 4.72598 9.72656 11.3205 
1 1 10.179 0.642592 2.46905 
19 1 9.0145 2.3091 3.182 
158 1 9.80429 2.81838 3.0982 
73 1 12.7699 1.10915 2.45103 
123 1 11.9826 4.51431 2.13717 
161 1 11.0719 0.0213528 0.0822908 
82 1 8.54833 1.71093 5.51803 
99 1 8.04359 3.67744 6.90245 
108 1 9.45419 0.454285 4.20166 
58 1 11.742 1.07776 5.66343 
64 1 11.3719 4.54514 4.9512 
81 1 11.4579 0.593587 5.0334 
83 1 11.9225 4.50638 3.9359 
107 1 10.7299 3.34703 4.26826 
5 1 8.33147 3.14491 8.29951 
15 1 8.65826 1.72262 10.148 
61 1 7.95981 3.80656 9.93891 
94 1 9.82094 2.08397 8.50858 
112 1 9.35436 2.41255 8.99343 
170 1 9.21868 3.66501 7.74327 
177 1 7.52259 3.87451 7.28157 
84 1 12.1425 3.14106 9.48216 
97 1 13.6486 2.76994 7.73379 
159 1 10.4968 3.98099 9.91615 
35 1 8.27762 0.252783 11.3691 
162 1 10.2613 4.19879 11.5433 
195 1 7.97828 3.16031 11.0895 
46 1 11.6642 2.76275 10.4685 
10 1 8.50639 8.07095 0.877141 
17 1 7.02927 7.38604 1.70108 
20 1 9.20791 6.93901 0.163699 
100 1 8.34469 8.69756 3.15192 
119 1 7.23018 4.6702 2.94913 
173 1 9.2234 5.62447 2.9588 
152 1 12.7342 4.84634 1.68474 
153 1 12.9067 6.50471 3.32779 
3 1 9.51679 8.88932 5.02008 
8 1 9.24436 7.22258 3.88881 
45 1 7.55698 6.83122 4.91311 
65 1 7.08784 7.93045 6.73292 
145 1 10.3422 7.45062 4.3387 
77 1 11.6543 8.09492 4.84916 
88 1 11.0099 4.90839 3.88828 
118 1 12.124 8.88916 4.54047 
135 1 12.2532 8.75057 5.62943 
165 1 12.3666 8.81155 3.67986 
183 1 11.4706 8.83305 4.02316 
186 1 8.0391 5.05906 9.69552 
189 1 9.84834 7.36917 7.39677 
57 1 12.0194 7.12048 10.0843 
67 1 13.6993 7.63645 9.22607 
111 1 13.2768 7.74899 6.9404 
129 1 11.0532 9.21484 9.34835 
187 1 13.6696 5.33732 8.73438 
200 1 10.551 8.95858 8.5086 
2 1 9.08354 8.01707 11.9543 
66 1 7.61918 6.32963 10.5391 
120 1 7.2551 5.08901 13.2598 
146 1 9.66423 5.80149 10.682 
179 1 7.85027 7.3127 10.819 
75 1 12.3753 5.01607 12.9206 
29 1 8.56967 10.7675 0.166519 
59 1 8.76497 13.5565 1.83135 
72 1 9.00118 10.8541 2.32489 
106 1 9.63592 10.8386 3.22904 
192 1 8.5894 10.7276 3.12534 
6 1 11.3061 13.155 3.25609 
60 1 13.6658 13.5813 3.22049 
134 1 11.1212 12.9853 0.598064 
160 1 13.4314 11.3867 0.947325 
191 1 12.7689 11.0404 2.72797 
49 1 10.3451 11.2266 5.35497 
55 1 8.22037 12.0405 5.39442 
85 1 9.09479 11.7093 6.16966 
122 1 8.56739 10.3376 5.22986 
125 1 8.54539 9.68698 3.59489 
68 1 13.5491 13.228 5.66989 
92 1 13.4643 12.9642 4.64204 
154 1 13.1088 10.3013 4.33468 
185 1 10.7138 11.0184 4.7297 
24 1 8.01437 11.341 9.24263 
105 1 8.44629 10.6542 10.3769 
109 1 13.1225 13.0063 7.90771 
148 1 11.7805 11.3045 8.76537 
25 1 10.0336 12.3084 10.7955 
52 1 7.99562 13.2568 10.7124 
103 1 13.4962 13.1843 11.8331 
163 1 10.4528 10.4315 10.7439 
167 1 13.1479 12.4251 10.7066 
178 1 12.8361 10.6003 12.0401 
ITEM: TIMESTEP
100
ITEM: NUMBER OF ATOMS
200
ITEM: BOX BOUNDS pp pp pp
0.0000000000000000e+00 1.3855607200747134e+01
0.0000000000000000e+00 1.3855607200747134e+01
0.0000000000000000e+00 1.3855607200747134e+01
ITEM: ATOMS id type x y z 
71 1 4.22842 4.28109 0.348927 
27 1 4.28175 0.595935 1.59294 
188 1 5.08057 2.63989 3.15379 
58 1 2.60954 1.20319 3.11365 
53 1 1.34183 1.78176 3.29507 
155 1 6.66899 0.42249 0.294992 
197 1 0.530663 1.10352 1.60902 
168 1 3.58448 0.256906 2.69759 
61 1 6.34274 4.47972 0.2978 
36 1 3.86496 3.30476 3.87057 
124 1 6.73123 0.145405 4.20433 
48 1 5.63943 4.31538 5.59059 
157 1 4.54132 1.17059 4.01309 
82 1 4.99858 2.75654 4.3695 
170 1 0.275375 1.47325 6.24292 
149 1 4.95798 3.60616 6.64782 
147 1 2.90517 1.87086 9.18195 
143 1 4.00202 0.152166 8.23717 
43 1 6.60528 0.879155 7.06487 
121 1 4.7553 0.00191406 9.2752 
169 1 0.275194 3.04757 9.50571 
141 1 0.95102 1.19352 8.0263 
167 1 1.2103 1.87131 9.72572 
148 1 4.39726 2.92097 9.83354 
136 1 1.07934 2.12492 7.0836 
56 1 2.38641 2.2504 13.2628 
22 1 2.31496 3.58116 13.6397 
120 1 2.62902 4.21755 11.6245 
171 1 2.57302 1.19794 10.6522 
174 1 1.13716 3.7716 12.4723 
182 1 0.166188 3.77235 11.6154 
144 1 4.40599 0.671345 13.4426 
28 1 4.37031 1.07999 11.6332 
150 1 1.83514 1.51488 11.9858 
104 1 3.59813 2.12782 10.5123 
79 1 4.07676 4.33808 11.4946 
14 1 6.83801 1.82165 12.7121 
87 1 0.568745 2.7484 13.2478 
183 1 5.38627 0.526655 12.2663 
29 1 6.88988 5.35942 3.12186 
164 1 3.13563 8.74944 2.34822 
101 1 2.5609 9.22671 0.31495 
42 1 2.55847 5.69512 6.74688 
116 1 4.14829 8.86843 4.77658 
32 1 5.43223 5.54159 6.44686 
175 1 1.59511 8.11015 4.46165 
9 1 5.5989 7.24666 6.02212 
50 1 5.06177 7.87381 4.96927 
74 1 1.38489 9.10852 6.59158 
17 1 2.21792 8.3951 3.46644 
33 1 4.32904 5.52505 9.14829 
31 1 3.4904 7.92338 8.71802 
63 1 0.963756 7.46726 7.27979 
111 1 5.31556 7.97604 8.43233 
133 1 3.13183 6.51901 7.46896 
140 1 4.62316 6.32875 7.54392 
187 1 1.09146 5.13724 9.17594 
21 1 2.20094 4.98555 7.68704 
80 1 2.67665 6.89419 10.1049 
191 1 0.552426 7.96723 9.43848 
117 1 3.07579 4.62744 8.79004 
190 1 5.64099 5.35682 13.2201 
67 1 1.54592 6.72238 10.7649 
132 1 3.89896 5.5221 13.1721 
163 1 5.40119 7.03359 11.3877 
12 1 6.35605 8.63113 10.8756 
162 1 6.00715 6.09615 11.6334 
39 1 3.52576 7.85911 10.8875 
108 1 6.64857 13.0124 3.17561 
196 1 5.52298 10.9586 0.537454 
11 1 5.1687 11.6404 1.59147 
73 1 1.73736 9.66717 1.06049 
92 1 3.64942 10.9936 2.45744 
106 1 0.273813 12.5277 0.728906 
1 1 6.15904 11.2555 3.41234 
37 1 4.31945 11.849 4.69449 
176 1 2.68055 9.55654 5.93792 
192 1 3.05534 12.8842 4.2099 
181 1 4.17926 13.2019 6.56553 
139 1 3.26571 10.0397 4.56295 
96 1 5.73928 13.4229 5.47972 
7 1 1.06215 12.6686 5.90821 
115 1 2.20823 9.24625 4.51619 
25 1 4.98639 10.1056 6.32169 
165 1 2.04597 13.8501 4.7076 
19 1 5.22967 13.7728 3.67339 
4 1 3.44313 13.6565 5.66886 
69 1 1.8682 10.7755 6.95413 
62 1 6.34987 11.5551 9.80584 
34 1 4.2281 10.5865 9.92634 
91 1 5.37638 12.6624 9.05817 
90 1 4.03403 9.50567 8.66294 
16 1 3.78443 11.5326 8.20012 
177 1 0.0816757 9.91673 7.94406 
180 1 5.49835 11.9854 11.7116 
184 1 1.36581 10.7932 10.7244 
54 1 5.32241 10.2934 10.8366 
13 1 1.64313 12.1662 11.4872 
103 1 0.456548 12.0363 11.647 
194 1 0.590717 10.2282 11.6288 
41 1 7.70957 1.08793 1.12853 
6 1 12.7405 3.94943 1.2801 
99 1 11.3757 2.70608 3.29457 
123 1 11.8373 3.79215 2.76047 
51 1 7.50028 3.88543 1.12081 
23 1 9.73427 0.793044 3.345 
98 1 6.96256 2.62791 2.08879 
161 1 13.1181 0.246119 1.77042 
40 1 13.5412 3.02863 0.822512 
105 1 11.7325 1.71986 1.22692 
112 1 9.46713 1.26507 0.023307 
152 1 11.3564 3.93731 0.046551 
77 1 11.3928 0.934119 4.41168 
64 1 11.0933 2.31961 5.064 
107 1 12.6116 2.8532 6.76025 
137 1 10.062 2.0752 6.61322 
189 1 8.51203 2.95938 8.90984 
8 1 10.1205 3.31989 8.72986 
46 1 10.0426 0.332124 9.64807 
60 1 12.7407 0.0412565 8.18658 
145 1 10.3893 4.30756 7.5874 
97 1 11.8114 2.00369 9.71632 
35 1 11.3914 0.103532 10.3433 
142 1 8.12463 3.17445 7.79758 
172 1 11.3987 4.14267 9.00094 
138 1 13.4324 3.99689 9.00963 
18 1 7.35544 3.75926 13.4581 
15 1 8.4955 1.7803 12.55 
52 1 13.131 1.01875 12.6932 
86 1 9.65065 3.58234 13.5289 
127 1 9.74886 2.22274 12.9294 
75 1 11.0067 2.28222 12.4817 
195 1 12.1992 5.68768 1.1857 
128 1 11.7365 5.40151 2.26395 
93 1 8.95595 5.37042 2.82903 
45 1 9.03668 5.06555 1.4499 
114 1 8.78341 8.13793 1.11348 
20 1 8.09252 9.23258 1.21944 
88 1 8.02423 6.61748 1.84349 
102 1 13.0253 9.21675 0.879578 
119 1 7.54581 7.18116 5.8106 
122 1 9.77486 7.04712 4.94499 
126 1 7.93347 8.35576 6.12019 
153 1 10.6716 6.81461 4.54179 
173 1 10.1827 8.36179 3.72316 
186 1 8.87773 6.03425 8.52482 
66 1 7.51487 6.9112 9.02111 
76 1 7.3537 8.13046 8.31089 
24 1 11.8781 8.16117 10.0769 
5 1 9.59193 5.14915 7.82618 
146 1 7.62407 8.57093 9.66343 
44 1 13.4719 8.98597 8.65388 
65 1 8.38749 8.93302 7.54928 
166 1 9.39025 6.89361 10.164 
78 1 11.9547 5.41866 11.7806 
110 1 13.7824 9.18739 10.9058 
130 1 10.7879 8.97848 11.1721 
47 1 11.6907 5.63584 10.5293 
158 1 12.9129 6.29852 13.5979 
198 1 10.796 6.12305 12.7506 
199 1 10.6043 6.42231 11.4704 
81 1 10.9321 10.6525 3.24206 
154 1 12.019 11.2023 2.31496 
100 1 9.53748 9.33176 3.44079 
57 1 7.46502 11.5151 0.185641 
185 1 12.4674 9.88471 1.71726 
160 1 10.4426 11.031 1.6243 
10 1 8.86316 10.327 0.489128 
95 1 13.6793 13.4628 0.352306 
59 1 11.5505 13.8411 1.68719 
94 1 10.5991 13.7098 0.451151 
83 1 8.16047 9.73687 4.32866 
55 1 9.3318 11.3941 4.19907 
85 1 7.76597 13.0555 6.67022 
134 1 8.21338 12.5712 5.3327 
125 1 7.85941 11.0696 4.34403 
3 1 11.5105 9.35169 6.21185 
135 1 9.72624 10.4199 5.47938 
131 1 12.035 11.9196 3.69363 
200 1 8.33501 9.86558 6.5682 
89 1 13.5334 11.7429 3.75699 
193 1 10.6271 12.5281 8.10238 
151 1 12.1615 12.9446 10.1111 
118 1 8.23859 11.1412 9.7337 
30 1 7.60538 13.3754 7.93257 
113 1 13.4628 12.7589 8.18603 
68 1 11.6224 12.7916 8.47167 
49 1 9.36141 11.403 9.21514 
72 1 9.56607 10.0742 9.54315 
109 1 12.8541 11.3449 7.62715 
159 1 9.85765 12.33 9.77916 
156 1 10.7192 10.5213 7.06135 
179 1 7.73057 9.74061 9.16168 
26 1 13.8456 10.8191 12.8933 
178 1 11.4991 10.0936 13.5486 
129 1 9.88318 9.65221 10.8058 
84 1 12.0191 11.4576 10.6405 
2 1 8.8515 11.3557 13.471 
38 1 13.6618 11.9529 10.6119 
70 1 11.7019 9.39896 12.4461 
ITEM: TIMESTEP
200
ITEM: NUMBER OF ATOMS
200
ITEM: BOX BOUNDS pp pp pp
0.0000000000000000e+00 1.3855607200747134e+01
0.0000000000000000e+00 1.3855607200747134e+01
0.0000000000000000e+00 1.3855607200747134e+01
ITEM: ATOMS id type x y z 
157 1 6.66576 1.42774 3.25632 
132 1 2.63793 3.93585 0.286812 
22 1 4.60628 1.92198 0.902699 
190 1 3.45402 3.11485 1.11977 
61 1 3.04374 4.13731 2.31178 
82 1 6.59023 0.352751 2.34243 
4 1 4.52824 0.251324 3.3771 
36 1 0.847004 2.88604 4.99806 
149 1 4.74855 2.44385 6.26691 
136 1 1.82597 0.696766 5.19927 
143 1 3.63355 1.31811 6.51696 
33 1 4.35731 3.74159 6.44714 
147 1 5.84104 1.85442 4.17924 
141 1 1.13848 3.13766 6.9089 
13 1 2.67399 0.181359 8.67997 
85 1 6.36066 1.20269 9.80944 
43 1 6.86041 1.50609 7.27629 
38 1 0.0252206 1.51473 7.51499 
48 1 4.51731 4.37045 7.54885 
170 1 3.04664 2.84332 7.23436 
181 1 5.71464 1.60477 7.01675 
165 1 4.70739 0.921525 13.6818 
169 1 0.326754 3.4286 12.1849 
144 1 1.8715 3.04357 11.3716 
79 1 3.07321 2.64825 11.4865 
52 1 3.60239 3.94392 11.5008 
171 1 2.09615 1.24074 10.8164 
91 1 6.90236 1.33672 12.9632 
113 1 1.82521 0.0615156 11.3972 
60 1 0.145742 0.00815352 10.495 
146 1 4.7433 7.71242 0.158093 
185 1 1.70444 7.88041 0.564452 
51 1 1.8492 4.73432 2.24248 
6 1 1.74519 6.42859 0.179695 
196 1 5.3843 8.02772 2.53895 
11 1 5.61125 8.81065 1.23582 
88 1 6.21593 6.38815 0.908716 
164 1 1.24765 8.90886 3.37496 
56 1 1.44573 5.3999 0.636098 
105 1 6.24756 5.27387 0.306901 
42 1 1.61439 5.78825 5.15285 
133 1 6.06916 6.57958 6.04758 
32 1 4.89005 7.04922 5.68107 
175 1 0.685576 6.99315 4.74875 
9 1 3.51117 7.82315 6.0517 
139 1 2.95707 6.89428 4.47671 
191 1 0.179605 5.46829 5.01945 
17 1 1.46825 7.70919 4.01364 
176 1 0.510279 8.82771 6.14727 
50 1 3.00887 9.22747 6.40954 
1 1 5.98762 8.67822 3.59345 
34 1 6.24365 8.21974 9.03295 
117 1 2.25067 6.04132 8.38476 
76 1 5.09257 4.97324 8.41489 
90 1 3.87113 7.75378 7.16045 
121 1 0.602438 9.15343 7.26517 
140 1 5.67905 8.02157 7.7655 
187 1 0.548097 7.00359 8.51529 
21 1 2.66241 7.26129 9.66535 
53 1 3.42474 5.22409 8.10941 
54 1 4.77204 8.16666 9.83453 
28 1 5.03676 5.04773 9.87513 
178 1 0.724848 8.55461 13.4263 
148 1 5.91483 5.26075 13.0056 
73 1 3.43476 8.27385 13.0761 
40 1 0.406413 5.96173 13.1632 
158 1 1.03598 6.41956 11.4322 
162 1 3.58306 9.12034 10.6747 
39 1 4.90188 7.24963 12.6693 
120 1 3.68833 4.86682 13.1738 
67 1 5.73556 7.8888 11.6469 
86 1 6.90853 5.74643 11.4252 
195 1 1.44921 7.44227 10.3993 
103 1 1.60844 10.5577 2.7447 
161 1 0.39962 12.2222 0.630357 
131 1 0.389732 10.5028 2.02899 
106 1 2.57903 10.2556 3.28444 
83 1 2.48868 12.997 1.65107 
58 1 3.33901 13.6118 0.666788 
102 1 0.341989 11.8155 1.96023 
163 1 4.49077 10.1953 2.00667 
37 1 4.84003 12.9912 6.84785 
179 1 4.3679 11.1462 5.49949 
192 1 5.00042 13.0389 4.67377 
108 1 3.56982 12.3101 4.27494 
31 1 0.398795 12.5841 6.45198 
168 1 2.98997 13.0794 3.65993 
69 1 2.00495 11.2166 7.69214 
115 1 4.72902 11.8238 7.4096 
116 1 5.82914 12.6532 7.59629 
100 1 6.85261 13.0443 8.25035 
16 1 1.66688 13.5256 7.97599 
167 1 2.60303 13.5562 9.76474 
184 1 1.20487 10.4329 8.14759 
87 1 0.680503 13.709 7.23464 
62 1 5.90093 11.76 10.1858 
26 1 1.4125 11.551 13.2225 
101 1 2.33337 9.39885 13.4555 
44 1 2.80982 10.8014 12.6337 
118 1 5.68961 12.4283 13.3282 
155 1 5.75358 13.579 12.6811 
104 1 5.61923 12.785 11.1493 
95 1 1.59607 13.6345 13.1336 
197 1 3.27113 11.881 11.9308 
30 1 6.21755 10.4482 10.4841 
15 1 8.19531 0.466745 1.23097 
27 1 7.93752 0.834935 3.24332 
14 1 8.86179 0.550232 2.44791 
57 1 6.96073 0.898754 0.793662 
98 1 9.05969 3.91859 3.37113 
19 1 7.66715 1.54656 5.02235 
64 1 11.4328 2.74713 6.16759 
137 1 12.4895 1.99804 6.20953 
29 1 9.40708 3.93746 4.82631 
124 1 7.44553 0.192879 5.62519 
107 1 11.5349 1.35562 6.173 
96 1 7.27906 1.60138 8.89832 
151 1 13.6543 1.11509 9.97998 
183 1 8.30584 4.45586 9.12761 
66 1 7.02613 4.01201 8.39943 
25 1 7.33146 0.441984 9.58107 
150 1 13.511 3.53078 10.092 
125 1 7.66121 0.102325 7.12916 
189 1 9.53117 3.84605 11.0404 
174 1 12.5898 3.02835 13.5351 
138 1 13.5115 2.3666 10.7373 
152 1 9.97523 2.49676 11.4371 
142 1 8.64758 2.91911 11.414 
75 1 11.5919 2.38805 11.6479 
182 1 11.5333 2.60912 13.0788 
97 1 10.4549 0.912425 11.5588 
18 1 7.87082 4.41442 10.9939 
71 1 13.2538 3.71451 12.8731 
160 1 12.4763 0.0511919 13.5992 
93 1 7.09674 5.07212 3.34686 
199 1 9.99015 6.50613 2.31646 
198 1 10.7047 6.39134 0.648742 
45 1 7.071 6.46231 2.72251 
114 1 8.04933 8.60095 0.273294 
123 1 13.7556 7.63733 3.1691 
154 1 12.0687 8.81255 0.957693 
200 1 8.2984 6.47837 3.22002 
110 1 13.3418 6.36267 0.32392 
92 1 7.67681 7.64196 0.0543774 
119 1 8.35333 4.98417 5.63123 
122 1 9.40633 7.88075 3.63818 
173 1 8.14759 5.24005 3.87916 
74 1 12.9139 7.39898 4.2401 
49 1 11.0862 9.16041 6.26545 
134 1 9.43795 9.05936 3.67111 
63 1 12.6717 6.20574 5.84126 
7 1 13.1817 8.43804 5.47004 
145 1 10.3493 6.73554 6.44839 
3 1 12.0988 8.47522 6.44791 
153 1 11.6728 6.51043 4.09378 
78 1 10.421 7.4847 9.33572 
12 1 7.56286 8.27086 9.9248 
129 1 7.39523 8.71991 7.24975 
111 1 8.47806 8.99367 8.74216 
5 1 9.9074 7.27957 8.19721 
47 1 9.4412 8.60181 9.48993 
166 1 13.2881 6.35523 7.12093 
186 1 11.7561 6.9002 7.20809 
35 1 10.1331 5.16499 13.7805 
80 1 6.9768 7.26003 11.1069 
128 1 12.7259 8.9233 13.7725 
81 1 7.64181 10.7126 0.617822 
99 1 8.51049 12.5029 3.16994 
20 1 8.73602 10.6847 2.02004 
2 1 7.313 12.688 2.98235 
77 1 9.39769 11.588 3.20544 
188 1 7.22262 12.6697 1.12306 
10 1 9.29014 10.2223 3.12604 
59 1 13.2653 13.137 0.81511 
68 1 8.95305 12.9176 6.27041 
55 1 12.5774 12.0755 5.84496 
23 1 11.6048 10.3256 4.17691 
109 1 9.73474 11.8629 6.84366 
126 1 9.53665 10.9589 5.66987 
89 1 11.5379 9.79309 5.21859 
172 1 10.5078 13.7179 6.57142 
156 1 11.0559 9.99792 7.62782 
193 1 11.3811 12.7516 7.5628 
135 1 7.72762 12.7867 9.86586 
65 1 8.31406 11.1842 7.13261 
130 1 10.6167 10.1302 9.49148 
24 1 12.8725 10.6097 8.84287 
180 1 10.3642 11.1388 10.0692 
72 1 7.78004 10.0053 7.58296 
159 1 8.62017 11.7287 9.70179 
177 1 12.5118 9.49396 8.27662 
70 1 11.2787 10.6566 12.4375 
194 1 9.99827 10.6482 12.1015 
41 1 8.54129 13.1676 13.6548 
46 1 8.17011 9.58235 11.9476 
8 1 10.8457 13.5729 11.3996 
84 1 7.32729 10.5587 11.1724 
127 1 7.20007 11.4874 12.5217 
112 1 7.68669 9.84243 13.1787 
94 1 8.5376 11.5469 13.6263 
ITEM: TIMESTEP
300
ITEM: NUMBER OF ATOMS
200
ITEM: BOX BOUNDS pp pp pp
0.0000000000000000e+00 1.3855607200747134e+01
0.0000000000000000e+00 1.3855607200747134e+01
0.0000000000000000e+00 1.3855607200747134e+01
ITEM: ATOMS id type x y z 
110 1 3.72832 3.846 2.045 
170 1 4.79855 4.22561 0.106417 
22 1 3.20929 0.9008 0.0507645 
190 1 2.8488 2.30949 0.222364 
4 1 6.10094 0.0989762 2.64361 
56 1 0.635584 3.44319 2.7997 
119 1 5.68357 3.23206 2.6838 
51 1 0.144233 2.94052 1.36102 
141 1 0.368345 2.23035 3.05563 
132 1 2.68201 3.74792 0.863249 
143 1 2.79428 3.31998 2.71962 
88 1 6.13589 4.34198 1.12847 
91 1 4.33585 2.22664 3.43127 
59 1 1.12203 2.27773 0.0723872 
168 1 1.35968 2.84773 4.28178 
149 1 3.83464 2.4443 6.02672 
136 1 4.95941 1.74479 5.40724 
192 1 3.3022 1.36329 4.60346 
82 1 5.66213 2.31174 4.24197 
147 1 6.03869 3.7484 6.01796 
173 1 4.88441 4.31941 3.582 
108 1 0.837223 1.73977 5.00002 
191 1 2.42383 3.8069 6.69037 
157 1 5.99749 3.70556 4.50039 
43 1 6.59838 3.00668 8.07971 
53 1 5.61206 4.28455 8.57942 
52 1 1.29489 3.6486 9.81471 
48 1 4.82139 4.12544 7.605 
60 1 2.43954 0.145888 9.66383 
181 1 6.80214 3.88337 8.95789 
76 1 1.52877 4.56661 8.56775 
33 1 3.51383 3.48103 6.93049 
120 1 3.63891 4.19366 13.6274 
171 1 6.57618 1.116 11.8055 
113 1 3.47154 1.22284 11.699 
79 1 3.31627 3.49033 12.3695 
61 1 0.33292 1.08053 13.4804 
151 1 3.49114 0.747757 10.4759 
6 1 2.02904 7.34542 0.0626202 
185 1 3.07328 8.31605 0.447793 
123 1 2.64466 7.55346 2.95343 
17 1 2.92294 7.38427 1.832 
196 1 5.6018 6.96901 2.35708 
11 1 5.83636 6.10051 1.71826 
1 1 6.72194 5.28193 1.99488 
74 1 0.474871 8.69778 2.84132 
42 1 1.40819 6.22648 5.91859 
45 1 5.87002 6.69943 4.73074 
50 1 1.08035 8.31091 6.48003 
175 1 2.19556 5.28904 6.23528 
9 1 3.48462 4.87267 4.46351 
139 1 3.23587 6.16459 5.178 
93 1 5.3561 5.71211 4.06205 
163 1 3.19489 7.51937 4.21343 
164 1 0.183314 9.04182 4.31982 
117 1 2.68319 8.94444 6.75433 
90 1 3.998 8.7817 6.27242 
106 1 3.77095 9.22981 4.6791 
34 1 5.81186 7.34691 9.74672 
21 1 1.405 6.39753 9.04395 
133 1 5.4485 8.37829 7.00456 
129 1 6.72103 8.81683 7.9689 
28 1 4.55631 8.52006 9.35067 
177 1 0.253198 8.78611 7.68489 
195 1 1.37635 6.64018 10.2116 
197 1 3.8218 8.21572 10.2082 
86 1 6.77878 5.29142 11.3987 
148 1 6.6728 5.75147 12.8452 
105 1 5.72702 6.48928 12.1834 
40 1 1.87366 6.64561 12.8426 
158 1 1.68054 5.9856 11.5692 
127 1 6.16402 9.10584 12.285 
39 1 4.23784 8.79315 13.6095 
144 1 1.22112 4.62361 11.7256 
54 1 4.96975 6.59391 10.5658 
178 1 2.75459 9.77779 0.475424 
161 1 0.194041 13.4818 1.75494 
131 1 1.36845 12.8124 2.19294 
118 1 5.84853 12.7341 2.14178 
155 1 4.72539 12.7135 1.0554 
154 1 1.7252 9.81657 2.48697 
128 1 1.71157 9.88872 1.26675 
20 1 6.57034 10.6975 0.648695 
58 1 2.11453 13.1364 0.0961223 
99 1 6.61985 10.3654 1.92944 
83 1 0.682312 13.1841 0.392622 
165 1 3.97356 13.7863 0.735195 
37 1 6.30342 13.0662 6.66891 
179 1 5.54176 10.9232 5.84978 
103 1 0.64705 10.4527 4.34854 
69 1 2.45152 11.6149 6.22088 
16 1 2.69834 13.6767 5.19633 
31 1 2.71023 12.7157 4.05729 
102 1 2.09726 11.5968 4.8794 
24 1 1.19341 9.95629 6.62598 
32 1 4.43373 10.4512 4.86534 
104 1 4.3059 12.3302 9.38714 
162 1 5.59437 12.3838 9.01958 
116 1 5.53823 13.4963 7.90162 
62 1 3.95067 10.3699 7.91042 
13 1 1.17727 13.6323 9.25752 
87 1 0.965248 12.7719 7.87782 
140 1 4.57294 10.1409 9.54876 
65 1 6.70968 12.8698 8.88294 
100 1 3.79303 13.1319 10.2449 
184 1 2.43698 13.0355 6.92827 
115 1 3.05629 10.6961 7.02886 
95 1 3.07972 12.1946 12.8896 
101 1 4.20413 11.5954 13.2927 
188 1 6.80599 10.9965 13.0486 
30 1 5.01937 10.6073 10.6008 
84 1 5.23661 11.8184 12.1838 
167 1 2.40918 13.2051 11.9685 
73 1 4.56392 9.28173 11.494 
44 1 3.94657 10.1954 13.8204 
112 1 6.23487 10.3731 10.9227 
200 1 8.95192 4.39583 3.3077 
57 1 10.2499 0.324609 0.700545 
182 1 11.2167 1.41099 1.09249 
198 1 9.6819 3.78032 2.41937 
174 1 12.3287 2.30197 0.782225 
19 1 8.39628 0.47841 5.96004 
27 1 8.94539 2.51602 4.66761 
63 1 12.2725 4.45975 5.20016 
29 1 8.49471 1.38139 4.95601 
166 1 13.1205 3.55634 4.96917 
107 1 10.7242 1.19013 6.62186 
98 1 11.3566 2.0959 6.07047 
36 1 13.0012 2.02469 5.47393 
137 1 12.7809 0.557243 7.28125 
64 1 9.38506 0.878147 7.15196 
183 1 8.5364 4.51304 9.19653 
124 1 8.07456 1.39935 7.04281 
66 1 8.87487 3.79427 8.13245 
125 1 6.9853 1.97443 7.33253 
189 1 9.43283 3.51907 12.1195 
71 1 12.3568 3.01212 11.4523 
8 1 12.2669 0.520232 12.1342 
152 1 9.88944 0.854359 12.0544 
85 1 9.01648 2.18779 11.7752 
75 1 9.18202 0.110777 13.5634 
96 1 7.84211 1.30395 11.3243 
97 1 12.4476 1.83172 12.3552 
18 1 8.10673 4.42773 10.5257 
169 1 13.7851 4.49669 12.0434 
135 1 8.36397 0.028969 10.4516 
150 1 11.9811 4.14594 10.5813 
92 1 9.2741 6.16969 0.982356 
199 1 10.003 4.87035 1.27623 
7 1 12.7702 6.43865 3.02016 
114 1 8.58407 7.05881 0.32654 
187 1 10.9458 6.418 6.29861 
153 1 11.6627 7.04597 5.42429 
3 1 11.9568 5.81395 4.24619 
35 1 7.8901 5.46301 3.50441 
78 1 10.4702 6.34479 7.59337 
12 1 9.81152 6.43445 9.96766 
145 1 11.7866 7.41492 9.9171 
47 1 9.6896 6.74447 8.67494 
186 1 11.048 7.78961 11.2287 
80 1 9.10284 6.56413 11.1743 
138 1 12.2407 4.92838 11.4804 
67 1 7.89756 6.67671 11.4704 
142 1 9.87204 4.65204 12.1293 
146 1 7.68587 8.78376 12.5951 
122 1 8.38546 8.76452 13.8089 
15 1 8.23029 13.1638 1.81953 
81 1 9.9117 9.4097 0.248574 
89 1 12.2235 11.0477 3.09837 
26 1 13.1547 12.8143 1.04391 
77 1 9.82998 12.0092 3.00906 
14 1 8.71169 12.0975 2.48989 
10 1 10.3724 10.905 2.42923 
134 1 9.9506 10.2293 1.34134 
2 1 7.28735 11.6899 2.33473 
68 1 8.43764 13.0711 5.01493 
55 1 11.8318 10.5655 5.54714 
23 1 11.2522 11.1126 4.008 
109 1 7.8071 11.9808 5.82298 
5 1 11.4961 9.97143 6.22998 
121 1 10.8296 12.792 4.70975 
193 1 9.73796 12.8083 5.29016 
126 1 6.95147 10.7422 6.45298 
156 1 10.7972 11.0582 8.74322 
46 1 8.17923 11.0063 9.70441 
72 1 7.22278 10.0324 8.06185 
49 1 12.0005 10.3253 8.3135 
130 1 10.9292 12.0971 7.97858 
159 1 8.36263 13.2535 9.0939 
180 1 9.69508 11.6262 8.56011 
111 1 8.67315 10.5062 8.41015 
176 1 13.6168 10.0468 8.23734 
38 1 13.6431 13.5439 7.48811 
172 1 10.398 13.282 7.13779 
70 1 8.37718 11.289 11.2785 
194 1 8.46679 12.537 11.3095 
25 1 9.60586 13.2868 10.5515 
41 1 7.59134 12.016 13.5269 
160 1 12.5669 13.6675 13.6553 
94 1 8.24979 13.1359 12.8984 
ITEM: TIMESTEP
400
ITEM: NUMBER OF ATOMS
200
ITEM: BOX BOUNDS pp pp pp
0.0000000000000000e+00 1.3855607200747134e+01
0.0000000000000000e+00 1.3855607200747134e+01
0.0000000000000000e+00 1.3855607200747134e+01
ITEM: ATOMS id type x y z 
110 1 3.36571 2.3918 1.78368 
165 1 2.63688 0.536591 0.0381273 
88 1 5.23537 2.55693 1.37555 
51 1 1.39538 1.94558 1.54007 
79 1 3.05453 3.2214 0.691999 
56 1 1.14206 2.92203 2.63227 
119 1 5.25989 3.08298 2.76402 
168 1 3.03834 2.19287 3.15054 
27 1 5.37907 1.2472 3.16372 
59 1 1.52932 0.694513 0.949465 
29 1 6.49913 1.29742 3.84657 
157 1 5.77778 3.56102 6.64348 
136 1 2.96526 3.44455 6.79517 
159 1 6.22845 0.198258 6.25785 
82 1 4.35841 2.83048 6.90011 
143 1 2.24735 1.06551 3.63038 
91 1 4.45333 3.6128 3.65568 
149 1 3.47919 1.74274 6.60309 
76 1 0.649776 3.30474 6.52451 
33 1 3.34404 4.50591 7.8343 
147 1 5.65462 3.61071 7.90726 
52 1 0.272558 2.49618 7.50341 
37 1 5.39564 0.475304 8.59118 
192 1 2.58191 0.695847 7.0243 
200 1 6.8999 2.87975 8.14534 
116 1 5.79706 0.238254 9.9172 
13 1 2.70516 0.541899 9.07187 
87 1 1.34645 0.295203 7.4149 
65 1 5.89742 1.21325 7.34918 
191 1 1.75786 4.08457 7.23185 
190 1 0.823835 0.544447 10.3255 
120 1 3.75728 3.45992 13.3605 
162 1 4.85821 0.265866 10.9074 
132 1 4.31331 2.45302 11.9602 
1 1 4.63895 2.28097 13.4365 
61 1 0.154529 1.76789 10.4833 
11 1 6.62647 5.27615 1.27385 
185 1 3.70198 6.95993 2.31345 
123 1 4.44906 6.27488 1.29499 
17 1 3.70729 8.2496 1.62795 
196 1 5.58602 6.1184 0.605102 
44 1 3.54528 9.11667 0.619923 
9 1 4.21208 6.52064 4.44883 
45 1 3.65094 5.07193 3.841 
173 1 5.73722 6.22925 4.43746 
175 1 1.56005 5.37641 6.55351 
106 1 1.76745 8.76595 5.77609 
139 1 2.52662 6.08546 5.50113 
93 1 6.7991 5.80278 4.14114 
163 1 1.78314 7.54214 5.41286 
42 1 0.967501 7.09041 8.29489 
54 1 5.69192 8.30506 9.41609 
105 1 6.19418 6.91954 9.52901 
53 1 5.45726 5.86836 9.57289 
48 1 4.60545 5.05061 8.29033 
50 1 0.776663 5.87636 7.69244 
181 1 6.74842 4.95937 9.7825 
117 1 0.81063 8.43307 7.1537 
197 1 2.93981 8.7072 13.4222 
34 1 2.40592 8.87842 12.1414 
73 1 4.26989 7.65486 12.6993 
40 1 2.44434 5.7527 10.8552 
158 1 1.14091 5.22868 10.934 
6 1 3.42037 7.02983 10.9112 
39 1 5.44396 7.54253 13.009 
144 1 0.656899 4.69541 12.0712 
140 1 3.06419 8.96463 10.9367 
178 1 3.82353 10.7736 0.651401 
2 1 6.89412 10.9437 2.88454 
26 1 0.654376 12.9963 0.578671 
118 1 4.40156 12.7661 2.22918 
155 1 3.40322 13.4226 1.44691 
99 1 5.93699 9.93008 2.32686 
128 1 3.97635 11.3448 1.99072 
20 1 5.03216 10.2618 1.89608 
4 1 6.15218 12.5905 2.47295 
154 1 2.82274 11.789 2.89054 
101 1 2.86875 13.0019 0.413601 
74 1 1.82728 10.6865 2.76093 
89 1 0.507863 11.287 1.18599 
164 1 0.60951 10.1661 3.1497 
32 1 4.94118 10.3231 5.14982 
179 1 5.49566 11.0732 4.28777 
109 1 5.8402 13.6384 4.03656 
102 1 2.54925 12.8783 3.68237 
126 1 5.28156 12.5439 4.67768 
31 1 0.946087 12.082 4.65783 
16 1 1.27024 13.2717 3.59467 
156 1 0.775928 12.4376 6.00221 
90 1 4.43138 9.84309 6.39666 
49 1 0.0377809 11.0364 6.88017 
176 1 0.719285 9.74419 6.9549 
133 1 4.97995 9.29633 7.5329 
24 1 1.66868 11.5154 6.99106 
62 1 4.81755 11.2276 9.4167 
38 1 0.296088 13.3333 7.18041 
69 1 3.79189 10.693 8.59164 
28 1 4.26864 9.3897 8.69262 
115 1 2.81216 11.7184 7.93341 
100 1 5.23964 12.5869 8.31551 
184 1 4.46993 12.9225 7.28833 
129 1 6.49118 9.57089 7.10875 
95 1 3.5517 11.83 13.6807 
22 1 3.7473 13.0478 11.9922 
188 1 6.18706 12.8373 11.9798 
30 1 3.75413 9.91293 11.6025 
84 1 6.25602 12.1398 10.7957 
83 1 1.57641 12.7076 12.4422 
112 1 4.81622 12.2162 12.8137 
58 1 2.12913 10.9861 13.465 
171 1 5.06054 11.2414 10.7449 
104 1 3.21726 13.66 10.6931 
167 1 1.4619 13.6591 11.6843 
174 1 13.5729 3.04509 3.10146 
160 1 12.694 1.93854 1.19537 
182 1 12.4026 3.7824 3.04065 
198 1 9.20848 3.91735 2.05346 
75 1 10.0117 0.516411 0.523565 
8 1 13.0065 0.825899 1.20543 
199 1 9.37344 4.48158 0.97636 
57 1 9.02546 0.430977 2.08077 
161 1 13.8148 0.305648 0.176517 
19 1 9.02153 1.09023 5.1823 
141 1 13.3807 1.13003 4.80728 
43 1 9.29277 4.10642 5.77778 
124 1 7.90004 0.653735 6.03315 
166 1 13.5038 3.48764 5.29032 
63 1 12.7748 4.46127 4.46879 
108 1 12.3174 2.41058 6.23122 
35 1 7.31379 1.20272 4.81123 
131 1 13.4782 2.24462 4.21388 
183 1 10.3331 4.2562 6.66405 
125 1 8.74892 4.17021 7.30007 
60 1 13.0561 2.29982 8.43362 
18 1 8.1521 4.60201 9.63746 
107 1 12.2387 2.17723 7.6009 
137 1 13.4586 0.74053 6.97297 
36 1 11.846 0.642265 7.14327 
189 1 9.67965 3.89998 12.4652 
71 1 13.207 3.06282 12.7543 
97 1 13.7135 2.73762 11.3546 
152 1 9.82749 1.55318 13.8245 
85 1 9.6358 2.2321 12.7158 
142 1 9.43436 4.46375 11.0075 
96 1 8.91593 1.45081 11.5774 
135 1 8.5671 0.686779 10.5423 
151 1 7.84994 3.05597 13.8445 
150 1 13.4118 2.71344 13.8041 